# OOMMF OVF 2.0
#
# Segment count: 1
#
# Begin: Segment
# Begin: Header
#
# Title: Oxs_MinDriver::Magnetization
# Desc: Oxs vector field output
# Desc:  MIF source file: /Users/leoni/tutorial/workshops/Durham/first_notebook/first_notebook.mif
# Desc:  Iteration: 94, State id: 203
# Desc:  Stage: 0, Stage iteration: 94
# Desc:  Stage simulation time: -1 s
# Desc:  Total simulation time: -2 s
# meshunit: m
# meshtype: rectangular
# xbase: 2.5000000000000001e-09
# ybase: 2.5000000000000001e-09
# zbase: 2.5000000000000001e-09
# xnodes: 20
# ynodes: 20
# znodes: 20
# xstepsize: 5.0000000000000001e-09
# ystepsize: 5.0000000000000001e-09
# zstepsize: 5.0000000000000001e-09
# xmin: 0
# ymin: 0
# zmin: 0
# xmax: 9.9999999999999995e-08
# ymax: 9.9999999999999995e-08
# zmax: 9.9999999999999995e-08
# valuedim: 3
# valuelabels: Magnetization_x Magnetization_y Magnetization_z
# valueunits: A/m A/m A/m
#
# End: Header
#
# Begin: Data Text
 6766931.87792529 3017335.99107011 3017335.98999374
 7315721.00893405 2289129.32409789 2289129.32290776
 7582504.72263137 1803555.11876002 1803555.11833366
 7757439.90517909 1382412.04411315 1382412.04343202
 7863746.21564328 1039590.17336327 1039590.17280973
 7925601.58738852 769688.079398493 769688.078650273
 7961588.39923774 553674.165040859 553674.164188121
 7982532.30825931 373616.077805547 373616.078349902
 7994164.81659965 216019.541374112 216019.542599330
 7999375.08752198 70704.3455446336 70704.3467815586
 7999375.08773907 -70704.3347027585 -70704.3330626792
 7994164.81710961 -216019.533269110 -216019.531832448
 7982532.30884796 -373616.072209035 -373616.071369408
 7961588.39974519 -553674.161600336 -553674.160331725
 7925601.58734012 -769688.080186737 -769688.078360444
 7863746.21595353 -1039590.17242963 -1039590.17139654
 7757439.90618468 -1382412.04082610 -1382412.04107617
 7582504.72251948 -1803555.11886899 -1803555.11869509
 7315721.00887447 -2289129.32307163 -2289129.32412441
 6766931.88034285 -3017335.98747065 -3017335.98817136
 6799733.36956899 2576635.33281141 3335352.52476823
 7392503.82972253 2151073.15017019 2173423.89564359
 7659981.70341144 1669121.16698579 1593334.50139068
 7814368.26233878 1255241.32769038 1166198.04056193
 7899462.01962008 932450.280726834 853836.210612068
 7946115.47463974 686406.677276832 622972.501062916
 7972440.74546703 492579.444174325 444470.529050106
 7987529.66621137 332063.346059912 298502.538677365
 7995845.09683199 191918.714662625 172129.005196979
 7999555.54296501 62807.3025198492 56270.3986831264
 7999555.54306832 -62807.2938432303 -56270.3936813280
 7995845.09707555 -191918.708316715 -172129.000958524
 7987529.66641926 -332063.343475743 -298502.535989016
 7972440.74545854 -492579.444752656 -444470.528561337
 7946115.47456741 -686406.676354116 -622972.503002219
 7899462.01968274 -932450.279522278 -853836.211347765
 7814368.26215704 -1255241.32793164 -1166198.04152002
 7659981.70322650 -1669121.16511594 -1593334.50423859
 7392503.82950076 -2151073.14855080 -2173423.89800067
 6799733.37043357 -2576635.32966676 -3335352.52543493
 6853773.63662613 2094111.62155580 3555345.75735660
 7440469.72779815 1897858.42121086 2244447.29115172
 7702353.58870556 1481234.96699187 1574703.83473057
 7844349.81197191 1103102.05236121 1117739.63403505
 7917823.04551960 813505.957520444 803919.322393435
 7956545.66898397 596791.113028712 580707.658622117
 7977940.83377161 427646.465516922 411799.166306190
 7990061.85035180 288119.424539966 275497.413337228
 7996696.96873568 166483.044883131 158496.012505055
 7999647.06935081 54479.1293931778 51757.0312863661
 7999647.06939194 -54479.1255481002 -51757.0289763139
 7996696.96878616 -166483.044675014 -158496.010176819
 7990061.85030051 -288119.427259313 -275497.411980933
 7977940.83394692 -427646.464314227 -411799.164158851
 7956545.66899457 -596791.114186645 -580707.657286925
 7917823.04535316 -813505.959668899 -803919.321858558
 7844349.81210548 -1103102.05069190 -1117739.63474505
 7702353.58818719 -1481234.96957486 -1574703.83483641
 7440469.72816195 -1897858.41808354 -2244447.29259011
 6853773.63577214 -2094111.62605508 -3555345.75635277
 6884192.36196322 1687240.31718189 3709597.77274615
 7480559.87669268 1627502.68827452 2322166.86111806
 7736944.45040619 1282167.17219173 1579790.46518289
 7867414.25244123 950566.665239107 1095543.69854457
 7931364.46006181 698889.236097678 777824.940031671
 7964075.26948157 512195.917944524 557817.572036734
 7981872.48366242 366944.871850528 393780.542403116
 7991863.77450405 247227.030320807 262663.673256504
 7997301.92449363 142864.239923831 150836.790742273
 7999712.01459226 46752.4542433002 49212.7179754712
 7999712.01461625 -46752.4482865528 -49212.7197345142
 7997301.92448811 -142864.238284212 -150836.792587930
 7991863.77456081 -247227.027689734 -262663.674006134
 7981872.48381761 -366944.870382560 -393780.540625391
 7964075.26936150 -512195.920295417 -557817.571592498
 7931364.45985352 -698889.238728638 -777824.939791613
 7867414.25204016 -950566.665655804 -1095543.70106326
 7736944.44924553 -1282167.17531410 -1579790.46833303
 7480559.87570967 -1627502.69191263 -2322166.86173488
 6884192.36115338 -1687240.31784621 -3709597.77394689
 6899022.19492880 1343168.15513698 3820915.08161405
 7511976.58682325 1359347.31071610 2392150.21431937
 7765480.04259613 1079831.89225532 1591000.56332781
 7885812.72564613 798804.845723849 1084374.69284640
 7941864.19664880 587064.826570981 762986.219659998
 7969834.90680601 430521.446604597 544410.545700500
 7984862.17097427 308635.383304114 383040.873428439
 7993230.44874756 208040.594061330 254923.722782908
 7997760.25241607 120255.767051068 146183.088504305
 7999761.19894344 39359.4797154973 47661.2131143763
 7999761.19893848 -39359.4772045455 -47661.2160212432
 7997760.25240627 -120255.764978953 -146183.090745064
 7993230.44878943 -208040.591616811 -254923.723465030
 7984862.17100664 -308635.382714390 -383040.873228740
 7969834.90657970 -430521.449386405 -544410.546813731
 7941864.19621558 -587064.830773180 -762986.220936115
 7885812.72510758 -798804.844469445 -1084374.69768689
 7765480.04119877 -1079831.89824972 -1591000.56607970
 7511976.58651524 -1359347.31552176 -2392150.21255578
 6899022.19451187 -1343168.15315400 -3820915.08306395
 6905143.64473561 1045734.97475830 3901977.65346428
 7535899.29325702 1098274.53416338 2450309.14161797
 7788639.27235173 878004.517987912 1601938.31078887
 7900442.36519714 648689.559087378 1078059.50212835
 7950082.68903530 477204.722211158 753963.454419801
 7974318.61850027 350486.253196149 536098.831336684
 7987185.76170239 251545.433374840 376282.477677195
 7994292.20492707 169683.030079105 249999.623090556
 7998116.31607437 98125.9788368913 143201.560124867
 7999799.41080998 32122.8606980266 46663.7827970768
 7999799.41081470 -32122.8582017973 -46663.7837061701
 7998116.31608118 -98125.9771367445 -143201.560909504
 7994292.20502351 -169683.025672318 -249999.622997890
 7987185.76190543 -251545.429055222 -376282.476255098
 7974318.61839634 -350486.254231777 -536098.832205482
 7950082.68884019 -477204.724234684 -753963.455196377
 7900442.36469582 -648689.559502745 -1078059.50555230
 7788639.27247505 -878004.520131783 -1601938.30901429
 7535899.29315645 -1098274.53832418 -2450309.14006231
 6905143.64591245 -1045734.97360099 -3901977.65169185
 6906731.97519036 782236.458676948 3960449.41207429
 7553558.51464217 844879.060177128 2495983.40129719
 7806757.66547705 678490.789002125 1610647.38591492
 7911717.80914084 500872.934946610 1074172.98958857
 7956370.00377544 369030.163205130 748326.868198163
 7977748.97804548 271520.575068794 530846.324851776
 7988966.01078788 195119.914500407 371954.698103509
 7995106.69437366 131726.858270845 246813.655196907
 7998389.68302029 76211.9755513244 141259.383182767
 7999828.75968753 24954.3630281185 46011.9054387836
 7999828.75969228 -24954.3631973063 -46011.9045208366
 7998389.68305274 -76211.9717332157 -141259.383405386
 7995106.69452634 -131726.850824916 -246813.654224903
 7988966.01100136 -195119.910616132 -371954.695556045
 7977748.97802028 -271520.577014739 -530846.324235160
 7956370.00370152 -369030.169794311 -748326.865734659
 7911717.80935225 -500872.933327344 -1074172.98878649
 7806757.66596414 -678490.790176567 -1610647.38305928
 7553558.51476793 -844879.065086914 -2495983.39925464
 6906731.97636354 -782236.462875600 -3960449.40919907
 6906288.05505110 542825.865791946 4001065.53059128
 7565962.05477531 598241.761224502 2529491.05173890
 7820091.81664817 481875.025725730 1616774.70254027
 7919916.43548101 355531.157980714 1071690.83727665
 7960929.27829304 262353.686411051 744832.577995347
 7980243.44802659 193347.977716336 527570.914419663
 7990264.26269424 139103.878957263 369225.030530580
 7995701.86009341 93978.5567051856 244785.202531677
 7998589.68277082 54395.2522530200 140015.153481686
 7999850.24409077 17814.2699573851 45593.0247604832
 7999850.24409620 -17814.2719597591 -45593.0230243679
 7998589.68281025 -54395.2474366915 -140015.153100417
 7995701.86020136 -93978.5478940005 -244785.202388102
 7990264.26285308 -139103.874334908 -369225.028834682
 7980243.44802774 -193347.985136264 -527570.911683046
 7960929.27865859 -262353.689950609 -744832.572841562
 7919916.43570274 -355531.160709450 -1071690.83473276
 7820091.81715987 -481875.021047320 -1616774.70145963
 7565962.05494893 -598241.770772009 -2529491.04896154
 6906288.05510581 -542825.870104776 -4001065.52991172
 6905302.18907427 319528.087182240 4026748.49960458
 7573842.53554453 356781.268577351 2551394.98572226
 7828851.81936941 287904.698796325 1620552.39803201
 7925252.57278586 212345.589796133 1070178.02633267
 7963895.51814733 156885.304159078 742802.246477315
 7981871.80784843 115762.038708166 525663.003709188
 7991114.24351888 83356.1882745581 367620.582810543
 7996092.30263494 56346.0198637808 243583.689494478
 7998721.04425934 32623.6225845311 139274.388787688
 7999864.36304480 10685.6701348827 45343.0186414087
 7999864.36305713 -10685.6706123049 -45343.0163543736
 7998721.04427474 -32623.6192251056 -139274.388690307
 7996092.30266578 -56346.0105812150 -243583.690629270
 7991114.24358736 -83356.1861066752 -367620.581813730
 7981871.80801883 -115762.044199940 -525662.999912344
 7963895.51862562 -156885.305165970 -742802.241136766
 7925252.57282363 -212345.592412562 -1070178.02553382
 7828851.81942017 -287904.698961637 -1620552.39775743
 7573842.53606620 -356781.271314377 -2551394.98379094
 6905302.18825537 -319528.092205100 -4026748.50061031
 6904617.90197932 105500.204432300 4039198.10538322
 7577669.07728228 118559.787613321 2562201.18881423
 7833191.09587061 95753.1223377245 1622328.14040071
 7927880.03764507 70611.7507176365 1069454.10811751
 7965356.58179342 52204.0242922604 741868.765165303
 7982675.92210485 38545.1462793799 524785.093486657
 7991534.86757255 27767.6029159298 366877.936922372
 7996285.79318826 18775.3865250632 243024.687051316
 7998786.19787272 10872.5283023452 138928.574631451
 7999871.36861375 3561.50377452467 45226.1133069691
 7999871.36862111 -3561.50283904743 -45226.1120789447
 7998786.19787602 -10872.5226818189 -138928.574881452
 7996285.79317924 -18775.3820623295 -243024.687692884
 7991534.86759809 -27767.6003808287 -366877.936558040
 7982675.92221197 -38545.1506913548 -524785.091533190
 7965356.58199288 -52204.0273585492 -741868.762807975
 7927880.03760999 -70611.7518159086 -1069454.10830503
 7833191.09582736 -95753.1250349109 -1622328.14045032
 7577669.07760347 -118559.780738993 -2562201.18818240
 6904617.90142665 -105500.209745576 -4039198.10618918
 6904617.90142665 -105500.209745576 4039198.10618918
 7577669.07760347 -118559.780738994 2562201.18818240
 7833191.09582736 -95753.1250349111 1622328.14045032
 7927880.03760999 -70611.7518159081 1069454.10830503
 7965356.58199288 -52204.0273585491 741868.762807974
 7982675.92221197 -38545.1506913552 524785.091533189
 7991534.86759809 -27767.6003808288 366877.936558040
 7996285.79317924 -18775.3820623295 243024.687692884
 7998786.19787602 -10872.5226818190 138928.574881452
 7999871.36862111 -3561.50283904726 45226.1120789443
 7999871.36861375 3561.50377452488 -45226.1133069684
 7998786.19787272 10872.5283023452 -138928.574631451
 7996285.79318826 18775.3865250633 -243024.687051316
 7991534.86757255 27767.6029159297 -366877.936922373
 7982675.92210485 38545.1462793799 -524785.093486656
 7965356.58179342 52204.0242922605 -741868.765165304
 7927880.03764507 70611.7507176362 -1069454.10811751
 7833191.09587061 95753.1223377243 -1622328.14040071
 7577669.07728228 118559.787613320 -2562201.18881423
 6904617.90197932 105500.204432300 -4039198.10538322
 6905302.18825537 -319528.092205100 4026748.50061031
 7573842.53606620 -356781.271314377 2551394.98379094
 7828851.81942017 -287904.698961637 1620552.39775742
 7925252.57282363 -212345.592412562 1070178.02553382
 7963895.51862562 -156885.305165970 742802.241136765
 7981871.80801883 -115762.044199940 525662.999912343
 7991114.24358736 -83356.1861066750 367620.581813728
 7996092.30266578 -56346.0105812146 243583.690629271
 7998721.04427474 -32623.6192251055 139274.388690307
 7999864.36305713 -10685.6706123049 45343.0163543731
 7999864.36304480 10685.6701348826 -45343.0186414090
 7998721.04425934 32623.6225845310 -139274.388787688
 7996092.30263494 56346.0198637806 -243583.689494479
 7991114.24351888 83356.1882745576 -367620.582810544
 7981871.80784843 115762.038708165 -525663.003709189
 7963895.51814733 156885.304159077 -742802.246477315
 7925252.57278586 212345.589796133 -1070178.02633267
 7828851.81936941 287904.698796325 -1620552.39803201
 7573842.53554453 356781.268577350 -2551394.98572226
 6905302.18907427 319528.087182240 -4026748.49960458
 6906288.05510581 -542825.870104777 4001065.52991172
 7565962.05494893 -598241.770772009 2529491.04896154
 7820091.81715987 -481875.021047320 1616774.70145963
 7919916.43570274 -355531.160709450 1071690.83473276
 7960929.27865859 -262353.689950608 744832.572841563
 7980243.44802774 -193347.985136264 527570.911683046
 7990264.26285308 -139103.874334907 369225.028834683
 7995701.86020136 -93978.5478939998 244785.202388102
 7998589.68281025 -54395.2474366909 140015.153100417
 7999850.24409620 -17814.2719597588 45593.0230243680
 7999850.24409077 17814.2699573854 -45593.0247604835
 7998589.68277082 54395.2522530205 -140015.153481686
 7995701.86009340 93978.5567051860 -244785.202531677
 7990264.26269424 139103.878957264 -369225.030530581
 7980243.44802660 193347.977716337 -527570.914419665
 7960929.27829304 262353.686411052 -744832.577995347
 7919916.43548101 355531.157980715 -1071690.83727665
 7820091.81664817 481875.025725730 -1616774.70254027
 7565962.05477531 598241.761224502 -2529491.05173890
 6906288.05505110 542825.865791946 -4001065.53059128
 6906731.97636354 -782236.462875600 3960449.40919907
 7553558.51476793 -844879.065086914 2495983.39925464
 7806757.66596414 -678490.790176566 1610647.38305928
 7911717.80935225 -500872.933327344 1074172.98878649
 7956370.00370152 -369030.169794311 748326.865734658
 7977748.97802028 -271520.577014739 530846.324235159
 7988966.01100136 -195119.910616132 371954.695556045
 7995106.69452634 -131726.850824916 246813.654224903
 7998389.68305274 -76211.9717332157 141259.383405386
 7999828.75969228 -24954.3631973062 46011.9045208368
 7999828.75968753 24954.3630281185 -46011.9054387841
 7998389.68302029 76211.9755513245 -141259.383182765
 7995106.69437366 131726.858270845 -246813.655196907
 7988966.01078788 195119.914500407 -371954.698103509
 7977748.97804548 271520.575068795 -530846.324851776
 7956370.00377544 369030.163205131 -748326.868198162
 7911717.80914084 500872.934946610 -1074172.98958857
 7806757.66547705 678490.789002126 -1610647.38591492
 7553558.51464217 844879.060177129 -2495983.40129719
 6906731.97519036 782236.458676948 -3960449.41207429
 6905143.64591245 -1045734.97360099 3901977.65169184
 7535899.29315645 -1098274.53832418 2450309.14006231
 7788639.27247504 -878004.520131783 1601938.30901429
 7900442.36469582 -648689.559502744 1078059.50555230
 7950082.68884019 -477204.724234683 753963.455196378
 7974318.61839634 -350486.254231777 536098.832205482
 7987185.76190543 -251545.429055222 376282.476255098
 7994292.20502351 -169683.025672318 249999.622997890
 7998116.31608118 -98125.9771367443 143201.560909505
 7999799.41081470 -32122.8582017970 46663.7837061703
 7999799.41080998 32122.8606980267 -46663.7827970766
 7998116.31607437 98125.9788368911 -143201.560124867
 7994292.20492707 169683.030079105 -249999.623090555
 7987185.76170239 251545.433374840 -376282.477677197
 7974318.61850026 350486.253196148 -536098.831336684
 7950082.68903530 477204.722211158 -753963.454419800
 7900442.36519714 648689.559087377 -1078059.50212835
 7788639.27235173 878004.517987912 -1601938.31078887
 7535899.29325702 1098274.53416338 -2450309.14161797
 6905143.64473561 1045734.97475830 -3901977.65346428
 6899022.19451187 -1343168.15315400 3820915.08306395
 7511976.58651524 -1359347.31552176 2392150.21255578
 7765480.04119877 -1079831.89824972 1591000.56607969
 7885812.72510758 -798804.844469444 1084374.69768689
 7941864.19621558 -587064.830773180 762986.220936115
 7969834.90657970 -430521.449386404 544410.546813731
 7984862.17100664 -308635.382714390 383040.873228740
 7993230.44878943 -208040.591616811 254923.723465031
 7997760.25240627 -120255.764978953 146183.090745065
 7999761.19893848 -39359.4772045455 47661.2160212443
 7999761.19894344 39359.4797154973 -47661.2131143753
 7997760.25241607 120255.767051069 -146183.088504304
 7993230.44874756 208040.594061331 -254923.722782907
 7984862.17097427 308635.383304114 -383040.873428437
 7969834.90680601 430521.446604597 -544410.545700500
 7941864.19664880 587064.826570980 -762986.219659996
 7885812.72564613 798804.845723848 -1084374.69284640
 7765480.04259613 1079831.89225532 -1591000.56332781
 7511976.58682325 1359347.31071610 -2392150.21431937
 6899022.19492880 1343168.15513698 -3820915.08161406
 6884192.36115338 -1687240.31784621 3709597.77394689
 7480559.87570967 -1627502.69191263 2322166.86173489
 7736944.44924553 -1282167.17531411 1579790.46833303
 7867414.25204016 -950566.665655805 1095543.70106326
 7931364.45985352 -698889.238728638 777824.939791613
 7964075.26936150 -512195.920295417 557817.571592498
 7981872.48381761 -366944.870382560 393780.540625391
 7991863.77456081 -247227.027689734 262663.674006134
 7997301.92448811 -142864.238284212 150836.792587931
 7999712.01461625 -46752.4482865537 49212.7197345146
 7999712.01459226 46752.4542432994 -49212.7179754712
 7997301.92449363 142864.239923830 -150836.790742272
 7991863.77450405 247227.030320807 -262663.673256503
 7981872.48366242 366944.871850527 -393780.542403115
 7964075.26948157 512195.917944524 -557817.572036734
 7931364.46006181 698889.236097677 -777824.940031670
 7867414.25244124 950566.665239107 -1095543.69854457
 7736944.45040619 1282167.17219173 -1579790.46518289
 7480559.87669268 1627502.68827451 -2322166.86111806
 6884192.36196322 1687240.31718188 -3709597.77274615
 6853773.63577214 -2094111.62605508 3555345.75635277
 7440469.72816195 -1897858.41808354 2244447.29259011
 7702353.58818719 -1481234.96957486 1574703.83483641
 7844349.81210548 -1103102.05069190 1117739.63474505
 7917823.04535316 -813505.959668900 803919.321858559
 7956545.66899457 -596791.114186646 580707.657286926
 7977940.83394692 -427646.464314228 411799.164158852
 7990061.85030051 -288119.427259313 275497.411980934
 7996696.96878616 -166483.044675014 158496.010176820
 7999647.06939194 -54479.1255481002 51757.0289763150
 7999647.06935081 54479.1293931782 -51757.0312863649
 7996696.96873568 166483.044883131 -158496.012505054
 7990061.85035180 288119.424539966 -275497.413337227
 7977940.83377161 427646.465516922 -411799.166306189
 7956545.66898397 596791.113028713 -580707.658622116
 7917823.04551960 813505.957520445 -803919.322393435
 7844349.81197191 1103102.05236121 -1117739.63403505
 7702353.58870556 1481234.96699187 -1574703.83473057
 7440469.72779815 1897858.42121086 -2244447.29115173
 6853773.63662613 2094111.62155581 -3555345.75735660
 6799733.37043357 -2576635.32966676 3335352.52543493
 7392503.82950076 -2151073.14855080 2173423.89800067
 7659981.70322650 -1669121.16511594 1593334.50423859
 7814368.26215704 -1255241.32793165 1166198.04152002
 7899462.01968274 -932450.279522277 853836.211347765
 7946115.47456741 -686406.676354116 622972.503002220
 7972440.74545854 -492579.444752656 444470.528561337
 7987529.66641926 -332063.343475742 298502.535989017
 7995845.09707555 -191918.708316715 172129.000958525
 7999555.54306832 -62807.2938432304 56270.3936813281
 7999555.54296501 62807.3025198496 -56270.3986831263
 7995845.09683199 191918.714662624 -172129.005196978
 7987529.66621137 332063.346059912 -298502.538677365
 7972440.74546703 492579.444174325 -444470.529050106
 7946115.47463974 686406.677276831 -622972.501062916
 7899462.01962008 932450.280726833 -853836.210612067
 7814368.26233878 1255241.32769038 -1166198.04056193
 7659981.70341144 1669121.16698579 -1593334.50139068
 7392503.82972253 2151073.15017019 -2173423.89564359
 6799733.36956899 2576635.33281141 -3335352.52476823
 6766931.88034285 -3017335.98747065 3017335.98817136
 7315721.00887447 -2289129.32307163 2289129.32412441
 7582504.72251948 -1803555.11886899 1803555.11869509
 7757439.90618468 -1382412.04082610 1382412.04107617
 7863746.21595353 -1039590.17242963 1039590.17139654
 7925601.58734012 -769688.080186738 769688.078360445
 7961588.39974519 -553674.161600336 553674.160331726
 7982532.30884796 -373616.072209035 373616.071369409
 7994164.81710961 -216019.533269109 216019.531832449
 7999375.08773907 -70704.3347027586 70704.3330626797
 7999375.08752198 70704.3455446338 -70704.3467815583
 7994164.81659965 216019.541374112 -216019.542599329
 7982532.30825931 373616.077805547 -373616.078349901
 7961588.39923774 553674.165040859 -553674.164188121
 7925601.58738853 769688.079398493 -769688.078650273
 7863746.21564328 1039590.17336326 -1039590.17280973
 7757439.90517909 1382412.04411315 -1382412.04343202
 7582504.72263137 1803555.11876002 -1803555.11833366
 7315721.00893405 2289129.32409789 -2289129.32290776
 6766931.87792529 3017335.99107011 -3017335.98999374
 6799733.36905239 3335352.52549976 2576635.33322778
 7392503.82951913 2173423.89576020 2151073.15075139
 7659981.70329849 1593334.50091444 1669121.16795878
 7814368.26239859 1166198.04024535 1255241.32761218
 7899462.01959971 853836.209559644 932450.281863034
 7946115.47472296 622972.499495440 686406.677736082
 7972440.74561098 444470.527349458 492579.443378963
 7987529.66627086 298502.536369129 332063.346703807
 7995845.09690089 172129.002639653 191918.714085742
 7999555.54299447 56270.3967221071 62807.3005241706
 7999555.54303608 -56270.3960369287 -62807.2958385663
 7995845.09697056 -172129.004029799 -191918.709936275
 7987529.66631322 -298502.538067292 -332063.344158426
 7972440.74531226 -444470.530246688 -492579.445599531
 7946115.47430731 -622972.504753276 -686406.677775918
 7899462.01964633 -853836.212310216 -932450.278949438
 7814368.26219135 -1166198.04099518 -1255241.32820567
 7659981.70285169 -1593334.50459311 -1669121.16649762
 7392503.82903934 -2173423.89842032 -2151073.14971254
 6799733.37043560 -3335352.52461063 -2576635.33072843
 6702223.37290933 3088705.38005611 3088705.38168345
 7371175.54136866 2198382.48890480 2198382.48965124
 7675173.98190381 1595572.67880024 1595572.67906325
 7831918.63996358 1153483.94434019 1153483.94316539
 7911479.48794014 839193.753817384 839193.753227643
 7953182.19693340 611102.668984031 611102.667595478
 7976217.17629343 435866.699331252 435866.696382864
 7989279.07071116 292762.643908319 292762.642132454
 7996435.45724558 168849.013864345 168849.011317025
 7999619.05752218 55203.8715885082 55203.8684294654
 7999619.05760354 -55203.8624901559 -55203.8657377226
 7996435.45740298 -168849.007042805 -168849.010684063
 7989279.07086133 -292762.639785525 -292762.642157340
 7976217.17625708 -435866.697767305 -435866.698612051
 7953182.19710100 -611102.666947976 -611102.667450254
 7911479.48847767 -839193.751474487 -839193.750503015
 7831918.64035105 -1153483.94227073 -1153483.94260404
 7675173.98268634 -1595572.67709582 -1595572.67700348
 7371175.54304662 -2198382.48588054 -2198382.48704931
 6702223.37295236 -3088705.38039507 -3088705.38125112
 6749975.88192519 2666644.30181748 3365536.17734421
 7400738.58443132 2018662.28684505 2270257.90970522
 7706141.58169996 1469944.92558261 1566730.30179057
 7854002.17476860 1055310.57878284 1095887.50382471
 7924677.35905840 765097.325099933 783654.795143979
 7960553.44380456 556629.374966325 565466.716311391
 7980068.97892213 396988.462511779 401122.490365731
 7991043.89614464 266690.849231009 268502.217543824
 7997027.70871039 153836.981205125 154538.051404645
 7999682.62269508 50300.3787790770 50475.8164380234
 7999682.62268895 -50300.3788176265 -50475.8173714005
 7997027.70859448 -153836.984259413 -154538.054362067
 7991043.89593571 -266690.854056938 -268502.218968435
 7980068.97892730 -396988.460996584 -401122.491762455
 7960553.44375651 -556629.375070735 -565466.716885073
 7924677.35882132 -765097.328336671 -783654.794381317
 7854002.17501333 -1055310.57774837 -1095887.50306697
 7706141.58142294 -1469944.92709525 -1566730.30173392
 7400738.58461324 -2018662.28809226 -2270257.90800316
 6749975.87927012 -2666644.30677398 -3365536.17874202
 6799459.71812902 2247790.71521630 3565779.64015279
 7440952.97797540 1774731.53764569 2341483.87755387
 7739201.41876896 1296030.32732324 1557262.59519160
 7874715.10447386 927329.393928333 1062507.51457470
 7936309.94869110 672067.921827264 750539.210672876
 7966877.35701226 489282.925026819 538021.744544323
 7983333.40590809 349188.082813721 380072.904760070
 7992530.77582491 234692.825892844 253714.554107713
 7997525.23625439 135421.081855496 145778.002672604
 7999735.95638201 44285.4953970109 47575.4460429611
 7999735.95639529 -44285.4908417864 -47575.4480502035
 7997525.23622349 -135421.080595224 -145778.005538679
 7992530.77584815 -234692.823528405 -253714.555562796
 7983333.40600278 -349188.081931386 -380072.903581757
 7966877.35685598 -489282.929410280 -538021.742872221
 7936309.94835420 -672067.924949990 -750539.211439025
 7874715.10427422 -927329.395889241 -1062507.51434291
 7739201.41834742 -1296030.33170288 -1557262.59364162
 7440952.97773964 -1774731.54016553 -2341483.87639317
 6799459.71736433 -2247790.71899121 -3565779.63923133
 6838076.77851457 1852067.88367165 3716254.90587121
 7480007.32126683 1508619.55872524 2402822.81927450
 7770163.29785846 1101795.44712951 1552613.64070330
 7892916.91363053 787008.171332750 1040423.34305829
 7946198.19842671 571304.261681195 729071.760463219
 7972179.69570958 416674.731336572 520320.158730724
 7986053.73558781 297737.328455352 366467.209376492
 7993766.14417131 200267.830060672 244122.159058287
 7997938.00336236 115609.828273623 140078.770620671
 7999780.17724204 37814.7337260881 45685.4650693144
 7999780.17725156 -37814.7303831627 -45685.4661694735
 7997938.00334653 -115609.826072926 -140078.773341153
 7993766.14418250 -200267.828031717 -244122.160356416
 7986053.73564198 -297737.330395101 -366467.206620190
 7972179.69552199 -416674.736538705 -520320.157438997
 7946198.19814200 -571304.265380164 -729071.760667846
 7892916.91351142 -787008.172148820 -1040423.34334461
 7770163.29881738 -1101795.44323497 -1552613.63866804
 7480007.32023773 -1508619.56213859 -2402822.82033501
 6838076.77976136 -1852067.88314554 -3716254.90383925
 6865802.05331722 1480187.97078614 3830118.24044703
 7513965.83336798 1235216.21197041 2452459.65607269
 7796922.87074685 900151.565283265 1548457.58971396
 7908040.80742592 642440.068210896 1024773.80276993
 7954284.19585832 467588.876832838 714649.266270397
 7976496.87385315 341823.778379841 508580.500948534
 7988265.76938581 244623.063531291 357448.673864453
 7994770.26511567 164694.471962344 237748.057673330
 7998273.46395753 95124.7697611513 136282.331689676
 7999816.11505529 31121.8393736995 44424.7275252795
 7999816.11507107 -31121.8350697553 -44424.7276981814
 7998273.46392779 -95124.7678546504 -136282.334765581
 7994770.26517320 -164694.467871329 -237748.058572424
 7988265.76959800 -244623.059664505 -357448.671768675
 7976496.87384461 -341823.779527473 -508580.500311169
 7954284.19587856 -467588.877051140 -714649.265902216
 7908040.80772162 -642440.065146292 -1024773.80240933
 7796922.87174404 -900151.558647548 -1548457.58855032
 7513965.83360134 -1235216.20838873 -2452459.65716166
 6865802.05389488 -1480187.96792763 -3830118.24051624
 6884693.05770172 1129016.60861916 3914884.80018197
 7541629.12817209 959991.848707815 2490430.83492009
 7818605.82261505 697192.879653286 1543802.15025460
 7919950.41106359 497447.238795808 1013376.40139690
 7960613.19286824 363102.615986752 704836.210616071
 7979879.90317558 266064.473158350 500725.900086468
 7990002.07844093 190696.708359084 351427.875858902
 7995559.40458130 128507.765572622 233485.678359523
 7998537.30096609 74263.3932684840 133738.526514838
 7999844.38985287 24302.5193678169 43578.9592800194
 7999844.38986296 -24302.5182921722 -43578.9580273958
 7998537.30100870 -74263.3871223537 -133738.527379532
 7995559.40466475 -128507.758988625 -233485.679125650
 7990002.07862082 -190696.705719560 -351427.873201218
 7979879.90321821 -266064.474421423 -500725.898736003
 7960613.19286945 -363102.617040086 -704836.210059886
 7919950.41132841 -497447.236960056 -1013376.40022834
 7818605.82333856 -697192.872655170 -1543802.14975079
 7541629.12921832 -959991.842875994 -2490430.83399986
 6884693.05751092 -1129016.60434180 -3914884.80175107
 6896860.60192794 794391.733780680 3975205.10299471
 7562601.06237323 684912.911069588 2517530.43191963
 7834894.51099207 495617.099657218 1539087.94165689
 7928705.31169144 353644.377352514 1005269.98101152
 7965261.96992849 258804.890633067 698299.204492787
 7982373.77056494 190023.240537121 495580.624169874
 7991285.83747523 136374.352934453 347494.891515638
 7996144.00353009 91974.8534438011 230698.290292439