# OOMMF OVF 2.0
#
# Segment count: 1
#
# Begin: Segment
# Begin: Header
#
# Title: Oxs_MinDriver::Magnetization
# Desc: Oxs vector field output
# Desc:  MIF source file: /Users/leoni/tutorial/workshops/Durham/zeeman/zeeman.mif
# Desc:  Iteration: 10, State id: 35
# Desc:  Stage: 0, Stage iteration: 10
# Desc:  Stage simulation time: -1 s
# Desc:  Total simulation time: -2 s
# meshunit: m
# meshtype: rectangular
# xbase: 5.0000000000000003e-10
# ybase: 5.0000000000000003e-10
# zbase: 5.0000000000000003e-10
# xnodes: 10
# ynodes: 1
# znodes: 1
# xstepsize: 1.0000000000000001e-09
# ystepsize: 1.0000000000000001e-09
# zstepsize: 1.0000000000000001e-09
# xmin: 0
# ymin: 0
# zmin: 0
# xmax: 1e-08
# ymax: 1.0000000000000001e-09
# zmax: 1.0000000000000001e-09
# valuedim: 3
# valuelabels: Magnetization_x Magnetization_y Magnetization_z
# valueunits: A/m A/m A/m
#
# End: Header
#
# Begin: Data Text
 -0.000195669372001092 0.00000000000000 7999999.99999663
 -0.000195669372001092 0.00000000000000 7999999.99999663
 -0.000195669372001092 0.00000000000000 7999999.99999663
 -0.000195669372001092 0.00000000000000 7999999.99999663
 -0.000195669372001092 0.00000000000000 7999999.99999663
 -0.000195669372001092 0.00000000000000 7999999.99999663
 -0.000195669372001092 0.00000000000000 7999999.99999663
 -0.000195669372001092 0.00000000000000 7999999.99999663
 -0.000195669372001092 0.00000000000000 7999999.99999663
 -0.000195669372001092 0.00000000000000 7999999.99999663
# End: Data Text
# End: Segment
